28
Energy =  -3707.31770000 au
  C      0.12603681      0.02541368      4.53191470
  C      0.81908060     -0.31932627      3.19545427
  N      2.08139382     -1.09992587      3.39703747
  H      1.04835852      0.63505471      2.68379545
  H      0.08741380     -0.86220165      2.55379986
  O     -0.09514888     -0.84452917      5.40694734
  O     -0.26714830      1.22461857      4.63852666
  C      1.76818251     -2.53360967      3.67114086
  C      1.40909129     -3.43076417      2.47595742
  H      0.92452657     -2.56264812      4.40997043
  H      2.64386698     -2.96832434      4.19084830
  C      2.95922281     -0.98145545      2.18495586
  C     53.27018422      8.43258626     14.40289103
  H      2.41292652     -1.11122497      1.23418996
  H      3.73605236     -1.75838174      2.22153209
  O     54.08742793      8.39694289     13.46922250
  O     53.22508067      8.99820456     15.49188977
  O      1.66300858     -4.66285955      2.60003545
  O      0.90345519     -2.94301218      1.43169147
  O     52.09740664      7.61680286     14.14078531
  H     52.16989053      7.21154358     13.26435622
  H      3.46982482     -0.00513111      2.20046803
  O     -1.43828218      0.86003686      7.00457545
  H     -1.05149963     -0.02421341      6.75241155
  H     -1.13947794      1.36702580      6.19360933
  O      1.01511865     -5.24526658      0.07475088
  H      0.78271106     -4.28279454      0.21839787
  H      1.34839942     -5.43847141      0.99827504
