29
Energy =  -3721.69162000 au
  C      3.26629501      2.78342675      3.72447385
  C      3.59266205      3.06115550      2.24615999
  N      4.74543493      2.29564872      1.74344512
  H      3.75285266      4.15508986      2.13611465
  H      2.66915649      2.81378554      1.66484167
  O      2.11188520      2.73941063      4.11541743
  O      4.25556323      2.66830703      4.60651763
  H      5.25884622      2.91446933      4.18667516
  C      4.56742532      1.07381983      1.05519878
  C      3.09505842      0.56722294      0.79951679
  H      2.36992753     -0.27565752      3.91061476
  H      8.14111755     -0.30282138      2.20238765
  C      6.00659172      3.02709392      1.47191222
  C      6.54136266      3.99943167      2.53200149
  H      5.91894068      3.59299993      0.51626703
  H      6.80650542      2.25863867      1.30991091
  O      6.35688463      3.79137226      3.77766232
  O      7.20564110      4.96280121      2.12052430
  O      2.72170748      0.66997500     -0.37416645
  O      2.46339782      0.16737069      1.79254050
  O      5.55301550      0.47670672      0.64580461
  H      7.44166053     -0.17341582      1.92023605
  H      2.39405234     -0.77979136      4.48565601
  O      6.70510930      5.77375511      5.35416647
  H      6.10501619      5.05812400      5.59264760
  H      7.00013081      5.49424598      4.45207734
  O     -0.08131277      0.26782197      2.08884873
  H      0.68810941      0.09757417      1.47983061
  H      0.38008486      0.61209571      2.86285319
