31
Energy =  -3745.72779000 au
  C      5.47196453      3.62595634      4.80700167
  C      4.46733435      4.46612931      4.06376686
  N      4.51806748      4.20919403      2.59159142
  H      4.63658777      5.54684691      4.31434670
  H      3.42505970      4.24202911      4.42117721
  O      6.68613731      3.66045049      4.75152512
  O      4.84757131      2.78137495      5.67444190
  H      5.49040307      2.24224051      6.22511919
  C      3.41838712      4.85277381      1.88667014
  C      2.68869972      7.09080108     -0.81300116
  H      0.71075263      8.16972575      5.02665116
  H      2.83158034      2.10115258      2.77947115
  C      5.85563782      4.34705235      1.98149526
  C      6.43459086      5.75230032      2.12631846
  H      5.78272138      4.10782867      0.86906936
  H      6.55072237      3.58062524      2.39399567
  O      6.29324760      6.65722746      1.34555676
  O      7.16217673      5.98756721      3.25947455
  H      7.27958436      5.18347217      3.85877781
  O      2.33853285      8.20163403     -0.82815777
  H      3.34300822      4.62763990      0.81813119
  O      3.02475211      5.96453861     -0.79902282
  O      3.66110274      1.61735926      0.53936390
  H      4.46046294      1.10752575      0.63761447
  H      3.30294248      1.79679518      1.48744243
  O      4.89514152      3.69360825     -0.61738399
  H      4.37016061      4.35834343     -1.05821799
  H      4.30460776      2.93798036     -0.41395638
  O      2.66231389      5.50678480      2.56757923
  H      0.18235898      7.61921638      4.99303717
  H      2.34432542      1.63271437      2.40101522
