30
Energy =  -3734.85993000 au
  C      1.20855038      4.03382025      3.92962722
  C      0.99097479      3.49556949      2.67769881
  N      0.09127760      2.42462791      2.40899646
  H      1.55488106      3.87256631      1.83051361
  H     -0.08547835      4.53125406      1.14782281
  O      1.84770357      5.06058825      4.26210256
  O      0.65735073      3.31934475      5.00665222
  H      0.85735823      3.79857443      5.89723623
  C     -1.35226131      2.74086069      2.46775966
  C     -1.85127474      3.59514613      1.31696320
  H     -1.58177957      3.27705396      3.42278175
  H     -1.94810814      1.77084543      2.49301252
  C      0.48382101      1.10245146      2.50984401
  C      1.94855241      0.85275108      2.94862879
  H      2.15936935     -1.80761038      0.40465986
  H     -2.43925351      0.50945560      3.10710845
  O      2.82419225      0.37236058      2.28127826
  O      2.18832883      1.10428714      4.27198694
  O     -1.02365483      4.53128859      0.76928496
  O     -2.98156146      3.54678001      0.88606411
  H      1.51539954      1.73353421      4.70661057
  O      2.52096186      6.70062735      2.19420572
  H      1.76758483      7.21977235      2.43644259
  H      2.55848029      5.99080651      2.87165325
  O     -0.25063030      0.16097723      2.24837961
  H     -2.78971889     -0.16600579      3.20670429
  H      2.08250677     -1.10772976      0.70193029
  O      1.74064871      4.91644584      6.85340851
  H      1.82518561      5.35997376      5.94895075
  H      2.58273495      4.48376384      6.97924931
