20
	Energy:      24.9376735
C         -5.49148        1.97034       -0.33086
C         -4.20261        1.53575        0.33263
N         -2.98071        2.14886       -0.26179
H         -4.17906        0.43024        0.23812
H         -4.25613        1.76898        1.42021
O         -5.48724        2.72459       -1.29139
O         -6.66309        1.49242        0.12901
C         -2.89798        3.58536        0.12798
C         -1.89011        4.38095       -0.67298
H         -2.65384        3.67346        1.21091
H         -3.87052        4.09655       -0.02855
C         -1.76946        1.42600        0.22056
C         -1.59036        0.05344       -0.39124
H         -1.79904        1.32946        1.32957
H         -0.84518        1.98579       -0.03237
O         -2.36674       -0.37202       -1.23252
O         -0.53786       -0.70043       -0.02182
O         -1.71669        5.68813       -0.40139
O         -1.25082        3.86659       -1.57756
H         -3.03204        2.07726       -1.30637
