19
	Energy:      22.2250990
C         -5.45032        1.95576       -0.35811
C         -4.21305        1.57271        0.41282
N         -2.98548        2.17103       -0.16812
H         -4.16592        0.46290        0.38349
H         -4.32556        1.87305        1.47923
O         -5.37782        2.65910       -1.35409
O         -6.65035        1.49684        0.04410
C         -2.88046        3.60312        0.20677
C         -1.95714        4.36308       -0.71076
H         -2.53339        3.70554        1.25991
H         -3.86816        4.10665        0.13213
C         -1.78350        1.42805        0.28543
C         -1.60553        0.12947       -0.45877
H         -1.83754        1.23073        1.38007
H         -0.85929        2.01619        0.09934
O         -2.38243       -0.20072       -1.34153
O         -0.56158       -0.66698       -0.16157
O         -1.74933        5.67678       -0.50219
O         -1.41104        3.80935       -1.65257
