20
	Energy:      22.7135038
C         -5.45110        1.95531       -0.35862
C         -4.21338        1.57233        0.41155
N         -2.98584        2.17140       -0.16863
H         -4.16600        0.46256        0.38102
H         -4.32601        1.87138        1.47825
O         -5.37633        2.66110       -1.35449
O         -6.65205        1.49439        0.04954
H         -7.46317        1.71870       -0.42831
C         -2.88072        3.60354        0.20651
C         -1.95623        4.36285       -0.71084
H         -2.53460        3.70581        1.26006
H         -3.86833        4.10744        0.13229
C         -1.78384        1.42864        0.28522
C         -1.60535        0.12987       -0.45850
H         -1.83812        1.23153        1.37987
H         -0.85962        2.01684        0.09929
O         -2.38191       -0.20088       -1.34138
O         -0.56133       -0.66622       -0.16064
O         -1.74689        5.67626       -0.50232
O         -1.41024        3.80851       -1.65260
