21
	Energy:      25.4316229
C         -5.49163        1.96950       -0.33205
C         -4.20277        1.53604        0.33219
N         -2.98071        2.14905       -0.26202
H         -4.17895        0.43049        0.23848
H         -4.25690        1.76998        1.41958
O         -5.48450        2.72546       -1.29307
O         -6.66402        1.48962        0.13341
H         -7.50505        1.74036       -0.27453
C         -2.89791        3.58550        0.12792
C         -1.88998        4.38111       -0.67293
H         -2.65377        3.67347        1.21085
H         -3.87045        4.09677       -0.02846
C         -1.76964        1.42605        0.22048
C         -1.59071        0.05347       -0.39137
H         -1.79936        1.32946        1.32946
H         -0.84525        1.98571       -0.03236
O         -2.36708       -0.37184       -1.23274
O         -0.53838       -0.70063       -0.02187
O         -1.71647        5.68825       -0.40120
O         -1.25070        3.86679       -1.57754
H         -3.03177        2.07747       -1.30660
