21
	Energy:      23.1201539
C         -5.45125        1.95500       -0.35863
C         -4.21352        1.57155        0.41138
N         -2.98608        2.17090       -0.16884
H         -4.16624        0.46182        0.38086
H         -4.32603        1.87074        1.47808
O         -5.37645        2.66097       -1.35433
O         -6.65225        1.49438        0.04970
H         -7.46335        1.71891       -0.42811
C         -2.88198        3.60263        0.20760
C         -1.95643        4.36596       -0.71052
H         -2.53578        3.70366        1.26120
H         -3.87007        4.10545        0.13302
C         -1.78393        1.42842        0.28513
C         -1.60522        0.12961       -0.45847
H         -1.83816        1.23145        1.37982
H         -0.85990        2.01686        0.09916
O         -2.38166       -0.20129       -1.34135
O         -0.56110       -0.66634       -0.16049
O         -1.74052        5.68236       -0.50731
H         -2.16365        6.15208        0.22513
O         -1.41116        3.80833       -1.65062
